V -t * -v 1.0a5 -a 0
A -t * -n 1 -p 0 -o 0x7fffffff -c 30 -a 1
A -t * -h 1 -m 1073741823 -s 0
n -t * -a 0 -s 0 -S UP -v circle -c black -i black
n -t * -a 1 -s 1 -S UP -v circle -c black -i black
l -t * -s 0 -d 1 -S UP -r 1000000 -D 0.01 -c black
+ -t 0 -s 0 -d 1 -p cbr -e 200 -c 0 -i 0 -a 0 -x {0.0 1.0 0 ------- null}
- -t 0 -s 0 -d 1 -p cbr -e 200 -c 0 -i 0 -a 0 -x {0.0 1.0 0 ------- null}
h -t 0 -s 0 -d 1 -p cbr -e 200 -c 0 -i 0 -a 0 -x {0.0 1.0 -1 ------- null}
+ -t 0.005 -s 0 -d 1 -p cbr -e 200 -c 0 -i 1 -a 0 -x {0.0 1.0 1 ------- null}
- -t 0.005 -s 0 -d 1 -p cbr -e 200 -c 0 -i 1 -a 0 -x {0.0 1.0 1 ------- null}
h -t 0.005 -s 0 -d 1 -p cbr -e 200 -c 0 -i 1 -a 0 -x {0.0 1.0 -1 ------- null}
+ -t 0.01 -s 0 -d 1 -p cbr -e 200 -c 0 -i 2 -a 0 -x {0.0 1.0 2 ------- null}
- -t 0.01 -s 0 -d 1 -p cbr -e 200 -c 0 -i 2 -a 0 -x {0.0 1.0 2 ------- null}
h -t 0.01 -s 0 -d 1 -p cbr -e 200 -c 0 -i 2 -a 0 -x {0.0 1.0 -1 ------- null}
r -t 0.0116 -s 0 -d 1 -p cbr -e 200 -c 0 -i 0 -a 0 -x {0.0 1.0 0 ------- null}
+ -t 0.015 -s 0 -d 1 -p cbr -e 200 -c 0 -i 3 -a 0 -x {0.0 1.0 3 ------- null}
- -t 0.015 -s 0 -d 1 -p cbr -e 200 -c 0 -i 3 -a 0 -x {0.0 1.0 3 ------- null}
h -t 0.015 -s 0 -d 1 -p cbr -e 200 -c 0 -i 3 -a 0 -x {0.0 1.0 -1 ------- null}
r -t 0.0166 -s 0 -d 1 -p cbr -e 200 -c 0 -i 1 -a 0 -x {0.0 1.0 1 ------- null}
+ -t 0.02 -s 0 -d 1 -p cbr -e 200 -c 0 -i 4 -a 0 -x {0.0 1.0 4 ------- null}
- -t 0.02 -s 0 -d 1 -p cbr -e 200 -c 0 -i 4 -a 0 -x {0.0 1.0 4 ------- null}
h -t 0.02 -s 0 -d 1 -p cbr -e 200 -c 0 -i 4 -a 0 -x {0.0 1.0 -1 ------- null}
r -t 0.0216 -s 0 -d 1 -p cbr -e 200 -c 0 -i 2 -a 0 -x {0.0 1.0 2 ------- null}
+ -t 0.025 -s 0 -d 1 -p cbr -e 200 -c 0 -i 5 -a 0 -x {0.0 1.0 5 ------- null}
- -t 0.025 -s 0 -d 1 -p cbr -e 200 -c 0 -i 5 -a 0 -x {0.0 1.0 5 ------- null}
h -t 0.025 -s 0 -d 1 -p cbr -e 200 -c 0 -i 5 -a 0 -x {0.0 1.0 -1 ------- null}
r -t 0.0266 -s 0 -d 1 -p cbr -e 200 -c 0 -i 3 -a 0 -x {0.0 1.0 3 ------- null}
+ -t 0.03 -s 0 -d 1 -p cbr -e 200 -c 0 -i 6 -a 0 -x {0.0 1.0 6 ------- null}
- -t 0.03 -s 0 -d 1 -p cbr -e 200 -c 0 -i 6 -a 0 -x {0.0 1.0 6 ------- null}
h -t 0.03 -s 0 -d 1 -p cbr -e 200 -c 0 -i 6 -a 0 -x {0.0 1.0 -1 ------- null}
r -t 0.0316 -s 0 -d 1 -p cbr -e 200 -c 0 -i 4 -a 0 -x {0.0 1.0 4 ------- null}
+ -t 0.035 -s 0 -d 1 -p cbr -e 200 -c 0 -i 7 -a 0 -x {0.0 1.0 7 ------- null}
- -t 0.035 -s 0 -d 1 -p cbr -e 200 -c 0 -i 7 -a 0 -x {0.0 1.0 7 ------- null}
h -t 0.035 -s 0 -d 1 -p cbr -e 200 -c 0 -i 7 -a 0 -x {0.0 1.0 -1 ------- null}
r -t 0.0366 -s 0 -d 1 -p cbr -e 200 -c 0 -i 5 -a 0 -x {0.0 1.0 5 ------- null}
+ -t 0.04 -s 0 -d 1 -p cbr -e 200 -c 0 -i 8 -a 0 -x {0.0 1.0 8 ------- null}
- -t 0.04 -s 0 -d 1 -p cbr -e 200 -c 0 -i 8 -a 0 -x {0.0 1.0 8 ------- null}
h -t 0.04 -s 0 -d 1 -p cbr -e 200 -c 0 -i 8 -a 0 -x {0.0 1.0 -1 ------- null}
r -t 0.0416 -s 0 -d 1 -p cbr -e 200 -c 0 -i 6 -a 0 -x {0.0 1.0 6 ------- null}
+ -t 0.045 -s 0 -d 1 -p cbr -e 200 -c 0 -i 9 -a 0 -x {0.0 1.0 9 ------- null}
- -t 0.045 -s 0 -d 1 -p cbr -e 200 -c 0 -i 9 -a 0 -x {0.0 1.0 9 ------- null}
h -t 0.045 -s 0 -d 1 -p cbr -e 200 -c 0 -i 9 -a 0 -x {0.0 1.0 -1 ------- null}
r -t 0.0466 -s 0 -d 1 -p cbr -e 200 -c 0 -i 7 -a 0 -x {0.0 1.0 7 ------- null}
+ -t 0.05 -s 0 -d 1 -p cbr -e 200 -c 0 -i 10 -a 0 -x {0.0 1.0 10 ------- null}
- -t 0.05 -s 0 -d 1 -p cbr -e 200 -c 0 -i 10 -a 0 -x {0.0 1.0 10 ------- null}
h -t 0.05 -s 0 -d 1 -p cbr -e 200 -c 0 -i 10 -a 0 -x {0.0 1.0 -1 ------- null}
r -t 0.0516 -s 0 -d 1 -p cbr -e 200 -c 0 -i 8 -a 0 -x {0.0 1.0 8 ------- null}
+ -t 0.055 -s 0 -d 1 -p cbr -e 200 -c 0 -i 11 -a 0 -x {0.0 1.0 11 ------- null}
- -t 0.055 -s 0 -d 1 -p cbr -e 200 -c 0 -i 11 -a 0 -x {0.0 1.0 11 ------- null}
h -t 0.055 -s 0 -d 1 -p cbr -e 200 -c 0 -i 11 -a 0 -x {0.0 1.0 -1 ------- null}
r -t 0.0566 -s 0 -d 1 -p cbr -e 200 -c 0 -i 9 -a 0 -x {0.0 1.0 9 ------- null}
+ -t 0.06 -s 0 -d 1 -p cbr -e 200 -c 0 -i 12 -a 0 -x {0.0 1.0 12 ------- null}
- -t 0.06 -s 0 -d 1 -p cbr -e 200 -c 0 -i 12 -a 0 -x {0.0 1.0 12 ------- null}
h -t 0.06 -s 0 -d 1 -p cbr -e 200 -c 0 -i 12 -a 0 -x {0.0 1.0 -1 ------- null}
r -t 0.0616 -s 0 -d 1 -p cbr -e 200 -c 0 -i 10 -a 0 -x {0.0 1.0 10 ------- null}
+ -t 0.065 -s 0 -d 1 -p cbr -e 200 -c 0 -i 13 -a 0 -x {0.0 1.0 13 ------- null}
- -t 0.065 -s 0 -d 1 -p cbr -e 200 -c 0 -i 13 -a 0 -x {0.0 1.0 13 ------- null}
h -t 0.065 -s 0 -d 1 -p cbr -e 200 -c 0 -i 13 -a 0 -x {0.0 1.0 -1 ------- null}
r -t 0.0666 -s 0 -d 1 -p cbr -e 200 -c 0 -i 11 -a 0 -x {0.0 1.0 11 ------- null}
+ -t 0.07 -s 0 -d 1 -p cbr -e 200 -c 0 -i 14 -a 0 -x {0.0 1.0 14 ------- null}
- -t 0.07 -s 0 -d 1 -p cbr -e 200 -c 0 -i 14 -a 0 -x {0.0 1.0 14 ------- null}
h -t 0.07 -s 0 -d 1 -p cbr -e 200 -c 0 -i 14 -a 0 -x {0.0 1.0 -1 ------- null}
r -t 0.0716 -s 0 -d 1 -p cbr -e 200 -c 0 -i 12 -a 0 -x {0.0 1.0 12 ------- null}
+ -t 0.075 -s 0 -d 1 -p cbr -e 200 -c 0 -i 15 -a 0 -x {0.0 1.0 15 ------- null}
- -t 0.075 -s 0 -d 1 -p cbr -e 200 -c 0 -i 15 -a 0 -x {0.0 1.0 15 ------- null}
h -t 0.075 -s 0 -d 1 -p cbr -e 200 -c 0 -i 15 -a 0 -x {0.0 1.0 -1 ------- null}
r -t 0.0766 -s 0 -d 1 -p cbr -e 200 -c 0 -i 13 -a 0 -x {0.0 1.0 13 ------- null}
+ -t 0.08 -s 0 -d 1 -p cbr -e 200 -c 0 -i 16 -a 0 -x {0.0 1.0 16 ------- null}
- -t 0.08 -s 0 -d 1 -p cbr -e 200 -c 0 -i 16 -a 0 -x {0.0 1.0 16 ------- null}
h -t 0.08 -s 0 -d 1 -p cbr -e 200 -c 0 -i 16 -a 0 -x {0.0 1.0 -1 ------- null}
r -t 0.0816 -s 0 -d 1 -p cbr -e 200 -c 0 -i 14 -a 0 -x {0.0 1.0 14 ------- null}
+ -t 0.085 -s 0 -d 1 -p cbr -e 200 -c 0 -i 17 -a 0 -x {0.0 1.0 17 ------- null}
- -t 0.085 -s 0 -d 1 -p cbr -e 200 -c 0 -i 17 -a 0 -x {0.0 1.0 17 ------- null}
h -t 0.085 -s 0 -d 1 -p cbr -e 200 -c 0 -i 17 -a 0 -x {0.0 1.0 -1 ------- null}
r -t 0.0866 -s 0 -d 1 -p cbr -e 200 -c 0 -i 15 -a 0 -x {0.0 1.0 15 ------- null}
+ -t 0.09 -s 0 -d 1 -p cbr -e 200 -c 0 -i 18 -a 0 -x {0.0 1.0 18 ------- null}
- -t 0.09 -s 0 -d 1 -p cbr -e 200 -c 0 -i 18 -a 0 -x {0.0 1.0 18 ------- null}
h -t 0.09 -s 0 -d 1 -p cbr -e 200 -c 0 -i 18 -a 0 -x {0.0 1.0 -1 ------- null}
r -t 0.0916 -s 0 -d 1 -p cbr -e 200 -c 0 -i 16 -a 0 -x {0.0 1.0 16 ------- null}
+ -t 0.095 -s 0 -d 1 -p cbr -e 200 -c 0 -i 19 -a 0 -x {0.0 1.0 19 ------- null}
- -t 0.095 -s 0 -d 1 -p cbr -e 200 -c 0 -i 19 -a 0 -x {0.0 1.0 19 ------- null}
h -t 0.095 -s 0 -d 1 -p cbr -e 200 -c 0 -i 19 -a 0 -x {0.0 1.0 -1 ------- null}
r -t 0.0966 -s 0 -d 1 -p cbr -e 200 -c 0 -i 17 -a 0 -x {0.0 1.0 17 ------- null}
+ -t 0.1 -s 0 -d 1 -p cbr -e 200 -c 0 -i 20 -a 0 -x {0.0 1.0 20 ------- null}
- -t 0.1 -s 0 -d 1 -p cbr -e 200 -c 0 -i 20 -a 0 -x {0.0 1.0 20 ------- null}
h -t 0.1 -s 0 -d 1 -p cbr -e 200 -c 0 -i 20 -a 0 -x {0.0 1.0 -1 ------- null}
r -t 0.1016 -s 0 -d 1 -p cbr -e 200 -c 0 -i 18 -a 0 -x {0.0 1.0 18 ------- null}
+ -t 0.105 -s 0 -d 1 -p cbr -e 200 -c 0 -i 21 -a 0 -x {0.0 1.0 21 ------- null}
- -t 0.105 -s 0 -d 1 -p cbr -e 200 -c 0 -i 21 -a 0 -x {0.0 1.0 21 ------- null}
h -t 0.105 -s 0 -d 1 -p cbr -e 200 -c 0 -i 21 -a 0 -x {0.0 1.0 -1 ------- null}
r -t 0.1066 -s 0 -d 1 -p cbr -e 200 -c 0 -i 19 -a 0 -x {0.0 1.0 19 ------- null}
+ -t 0.11 -s 0 -d 1 -p cbr -e 200 -c 0 -i 22 -a 0 -x {0.0 1.0 22 ------- null}
- -t 0.11 -s 0 -d 1 -p cbr -e 200 -c 0 -i 22 -a 0 -x {0.0 1.0 22 ------- null}
h -t 0.11 -s 0 -d 1 -p cbr -e 200 -c 0 -i 22 -a 0 -x {0.0 1.0 -1 ------- null}
r -t 0.1116 -s 0 -d 1 -p cbr -e 200 -c 0 -i 20 -a 0 -x {0.0 1.0 20 ------- null}
+ -t 0.115 -s 0 -d 1 -p cbr -e 200 -c 0 -i 23 -a 0 -x {0.0 1.0 23 ------- null}
- -t 0.115 -s 0 -d 1 -p cbr -e 200 -c 0 -i 23 -a 0 -x {0.0 1.0 23 ------- null}
h -t 0.115 -s 0 -d 1 -p cbr -e 200 -c 0 -i 23 -a 0 -x {0.0 1.0 -1 ------- null}
r -t 0.1166 -s 0 -d 1 -p cbr -e 200 -c 0 -i 21 -a 0 -x {0.0 1.0 21 ------- null}
+ -t 0.12 -s 0 -d 1 -p cbr -e 200 -c 0 -i 24 -a 0 -x {0.0 1.0 24 ------- null}
- -t 0.12 -s 0 -d 1 -p cbr -e 200 -c 0 -i 24 -a 0 -x {0.0 1.0 24 ------- null}
h -t 0.12 -s 0 -d 1 -p cbr -e 200 -c 0 -i 24 -a 0 -x {0.0 1.0 -1 ------- null}
r -t 0.1216 -s 0 -d 1 -p cbr -e 200 -c 0 -i 22 -a 0 -x {0.0 1.0 22 ------- null}
+ -t 0.125 -s 0 -d 1 -p cbr -e 200 -c 0 -i 25 -a 0 -x {0.0 1.0 25 ------- null}
- -t 0.125 -s 0 -d 1 -p cbr -e 200 -c 0 -i 25 -a 0 -x {0.0 1.0 25 ------- null}
h -t 0.125 -s 0 -d 1 -p cbr -e 200 -c 0 -i 25 -a 0 -x {0.0 1.0 -1 ------- null}
r -t 0.1266 -s 0 -d 1 -p cbr -e 200 -c 0 -i 23 -a 0 -x {0.0 1.0 23 ------- null}
+ -t 0.13 -s 0 -d 1 -p cbr -e 200 -c 0 -i 26 -a 0 -x {0.0 1.0 26 ------- null}
- -t 0.13 -s 0 -d 1 -p cbr -e 200 -c 0 -i 26 -a 0 -x {0.0 1.0 26 ------- null}
h -t 0.13 -s 0 -d 1 -p cbr -e 200 -c 0 -i 26 -a 0 -x {0.0 1.0 -1 ------- null}
r -t 0.1316 -s 0 -d 1 -p cbr -e 200 -c 0 -i 24 -a 0 -x {0.0 1.0 24 ------- null}
+ -t 0.135 -s 0 -d 1 -p cbr -e 200 -c 0 -i 27 -a 0 -x {0.0 1.0 27 ------- null}
- -t 0.135 -s 0 -d 1 -p cbr -e 200 -c 0 -i 27 -a 0 -x {0.0 1.0 27 ------- null}
h -t 0.135 -s 0 -d 1 -p cbr -e 200 -c 0 -i 27 -a 0 -x {0.0 1.0 -1 ------- null}
r -t 0.1366 -s 0 -d 1 -p cbr -e 200 -c 0 -i 25 -a 0 -x {0.0 1.0 25 ------- null}
+ -t 0.14 -s 0 -d 1 -p cbr -e 200 -c 0 -i 28 -a 0 -x {0.0 1.0 28 ------- null}
- -t 0.14 -s 0 -d 1 -p cbr -e 200 -c 0 -i 28 -a 0 -x {0.0 1.0 28 ------- null}
h -t 0.14 -s 0 -d 1 -p cbr -e 200 -c 0 -i 28 -a 0 -x {0.0 1.0 -1 ------- null}
r -t 0.1416 -s 0 -d 1 -p cbr -e 200 -c 0 -i 26 -a 0 -x {0.0 1.0 26 ------- null}
+ -t 0.145 -s 0 -d 1 -p cbr -e 200 -c 0 -i 29 -a 0 -x {0.0 1.0 29 ------- null}
- -t 0.145 -s 0 -d 1 -p cbr -e 200 -c 0 -i 29 -a 0 -x {0.0 1.0 29 ------- null}
h -t 0.145 -s 0 -d 1 -p cbr -e 200 -c 0 -i 29 -a 0 -x {0.0 1.0 -1 ------- null}
r -t 0.1466 -s 0 -d 1 -p cbr -e 200 -c 0 -i 27 -a 0 -x {0.0 1.0 27 ------- null}
+ -t 0.15 -s 0 -d 1 -p cbr -e 200 -c 0 -i 30 -a 0 -x {0.0 1.0 30 ------- null}
- -t 0.15 -s 0 -d 1 -p cbr -e 200 -c 0 -i 30 -a 0 -x {0.0 1.0 30 ------- null}
h -t 0.15 -s 0 -d 1 -p cbr -e 200 -c 0 -i 30 -a 0 -x {0.0 1.0 -1 ------- null}
r -t 0.1516 -s 0 -d 1 -p cbr -e 200 -c 0 -i 28 -a 0 -x {0.0 1.0 28 ------- null}
+ -t 0.155 -s 0 -d 1 -p cbr -e 200 -c 0 -i 31 -a 0 -x {0.0 1.0 31 ------- null}
- -t 0.155 -s 0 -d 1 -p cbr -e 200 -c 0 -i 31 -a 0 -x {0.0 1.0 31 ------- null}
h -t 0.155 -s 0 -d 1 -p cbr -e 200 -c 0 -i 31 -a 0 -x {0.0 1.0 -1 ------- null}
r -t 0.1566 -s 0 -d 1 -p cbr -e 200 -c 0 -i 29 -a 0 -x {0.0 1.0 29 ------- null}
+ -t 0.16 -s 0 -d 1 -p cbr -e 200 -c 0 -i 32 -a 0 -x {0.0 1.0 32 ------- null}
- -t 0.16 -s 0 -d 1 -p cbr -e 200 -c 0 -i 32 -a 0 -x {0.0 1.0 32 ------- null}
h -t 0.16 -s 0 -d 1 -p cbr -e 200 -c 0 -i 32 -a 0 -x {0.0 1.0 -1 ------- null}
r -t 0.1616 -s 0 -d 1 -p cbr -e 200 -c 0 -i 30 -a 0 -x {0.0 1.0 30 ------- null}
+ -t 0.165 -s 0 -d 1 -p cbr -e 200 -c 0 -i 33 -a 0 -x {0.0 1.0 33 ------- null}
- -t 0.165 -s 0 -d 1 -p cbr -e 200 -c 0 -i 33 -a 0 -x {0.0 1.0 33 ------- null}
h -t 0.165 -s 0 -d 1 -p cbr -e 200 -c 0 -i 33 -a 0 -x {0.0 1.0 -1 ------- null}
r -t 0.1666 -s 0 -d 1 -p cbr -e 200 -c 0 -i 31 -a 0 -x {0.0 1.0 31 ------- null}
+ -t 0.17 -s 0 -d 1 -p cbr -e 200 -c 0 -i 34 -a 0 -x {0.0 1.0 34 ------- null}
- -t 0.17 -s 0 -d 1 -p cbr -e 200 -c 0 -i 34 -a 0 -x {0.0 1.0 34 ------- null}
h -t 0.17 -s 0 -d 1 -p cbr -e 200 -c 0 -i 34 -a 0 -x {0.0 1.0 -1 ------- null}
r -t 0.1716 -s 0 -d 1 -p cbr -e 200 -c 0 -i 32 -a 0 -x {0.0 1.0 32 ------- null}
+ -t 0.175 -s 0 -d 1 -p cbr -e 200 -c 0 -i 35 -a 0 -x {0.0 1.0 35 ------- null}
- -t 0.175 -s 0 -d 1 -p cbr -e 200 -c 0 -i 35 -a 0 -x {0.0 1.0 35 ------- null}
h -t 0.175 -s 0 -d 1 -p cbr -e 200 -c 0 -i 35 -a 0 -x {0.0 1.0 -1 ------- null}
r -t 0.1766 -s 0 -d 1 -p cbr -e 200 -c 0 -i 33 -a 0 -x {0.0 1.0 33 ------- null}
+ -t 0.18 -s 0 -d 1 -p cbr -e 200 -c 0 -i 36 -a 0 -x {0.0 1.0 36 ------- null}
- -t 0.18 -s 0 -d 1 -p cbr -e 200 -c 0 -i 36 -a 0 -x {0.0 1.0 36 ------- null}
h -t 0.18 -s 0 -d 1 -p cbr -e 200 -c 0 -i 36 -a 0 -x {0.0 1.0 -1 ------- null}
r -t 0.1816 -s 0 -d 1 -p cbr -e 200 -c 0 -i 34 -a 0 -x {0.0 1.0 34 ------- null}
+ -t 0.185 -s 0 -d 1 -p cbr -e 200 -c 0 -i 37 -a 0 -x {0.0 1.0 37 ------- null}
- -t 0.185 -s 0 -d 1 -p cbr -e 200 -c 0 -i 37 -a 0 -x {0.0 1.0 37 ------- null}
h -t 0.185 -s 0 -d 1 -p cbr -e 200 -c 0 -i 37 -a 0 -x {0.0 1.0 -1 ------- null}
r -t 0.1866 -s 0 -d 1 -p cbr -e 200 -c 0 -i 35 -a 0 -x {0.0 1.0 35 ------- null}
+ -t 0.19 -s 0 -d 1 -p cbr -e 200 -c 0 -i 38 -a 0 -x {0.0 1.0 38 ------- null}
- -t 0.19 -s 0 -d 1 -p cbr -e 200 -c 0 -i 38 -a 0 -x {0.0 1.0 38 ------- null}
h -t 0.19 -s 0 -d 1 -p cbr -e 200 -c 0 -i 38 -a 0 -x {0.0 1.0 -1 ------- null}
r -t 0.1916 -s 0 -d 1 -p cbr -e 200 -c 0 -i 36 -a 0 -x {0.0 1.0 36 ------- null}
+ -t 0.195 -s 0 -d 1 -p cbr -e 200 -c 0 -i 39 -a 0 -x {0.0 1.0 39 ------- null}
- -t 0.195 -s 0 -d 1 -p cbr -e 200 -c 0 -i 39 -a 0 -x {0.0 1.0 39 ------- null}
h -t 0.195 -s 0 -d 1 -p cbr -e 200 -c 0 -i 39 -a 0 -x {0.0 1.0 -1 ------- null}
r -t 0.1966 -s 0 -d 1 -p cbr -e 200 -c 0 -i 37 -a 0 -x {0.0 1.0 37 ------- null}
+ -t 0.2 -s 0 -d 1 -p cbr -e 200 -c 0 -i 40 -a 0 -x {0.0 1.0 40 ------- null}
- -t 0.2 -s 0 -d 1 -p cbr -e 200 -c 0 -i 40 -a 0 -x {0.0 1.0 40 ------- null}
h -t 0.2 -s 0 -d 1 -p cbr -e 200 -c 0 -i 40 -a 0 -x {0.0 1.0 -1 ------- null}
r -t 0.2016 -s 0 -d 1 -p cbr -e 200 -c 0 -i 38 -a 0 -x {0.0 1.0 38 ------- null}
+ -t 0.205 -s 0 -d 1 -p cbr -e 200 -c 0 -i 41 -a 0 -x {0.0 1.0 41 ------- null}
- -t 0.205 -s 0 -d 1 -p cbr -e 200 -c 0 -i 41 -a 0 -x {0.0 1.0 41 ------- null}
h -t 0.205 -s 0 -d 1 -p cbr -e 200 -c 0 -i 41 -a 0 -x {0.0 1.0 -1 ------- null}
r -t 0.2066 -s 0 -d 1 -p cbr -e 200 -c 0 -i 39 -a 0 -x {0.0 1.0 39 ------- null}
+ -t 0.21 -s 0 -d 1 -p cbr -e 200 -c 0 -i 42 -a 0 -x {0.0 1.0 42 ------- null}
- -t 0.21 -s 0 -d 1 -p cbr -e 200 -c 0 -i 42 -a 0 -x {0.0 1.0 42 ------- null}
h -t 0.21 -s 0 -d 1 -p cbr -e 200 -c 0 -i 42 -a 0 -x {0.0 1.0 -1 ------- null}
r -t 0.2116 -s 0 -d 1 -p cbr -e 200 -c 0 -i 40 -a 0 -x {0.0 1.0 40 ------- null}
+ -t 0.215 -s 0 -d 1 -p cbr -e 200 -c 0 -i 43 -a 0 -x {0.0 1.0 43 ------- null}
- -t 0.215 -s 0 -d 1 -p cbr -e 200 -c 0 -i 43 -a 0 -x {0.0 1.0 43 ------- null}
h -t 0.215 -s 0 -d 1 -p cbr -e 200 -c 0 -i 43 -a 0 -x {0.0 1.0 -1 ------- null}
r -t 0.2166 -s 0 -d 1 -p cbr -e 200 -c 0 -i 41 -a 0 -x {0.0 1.0 41 ------- null}
+ -t 0.22 -s 0 -d 1 -p cbr -e 200 -c 0 -i 44 -a 0 -x {0.0 1.0 44 ------- null}
- -t 0.22 -s 0 -d 1 -p cbr -e 200 -c 0 -i 44 -a 0 -x {0.0 1.0 44 ------- null}
h -t 0.22 -s 0 -d 1 -p cbr -e 200 -c 0 -i 44 -a 0 -x {0.0 1.0 -1 ------- null}
r -t 0.2216 -s 0 -d 1 -p cbr -e 200 -c 0 -i 42 -a 0 -x {0.0 1.0 42 ------- null}
+ -t 0.225 -s 0 -d 1 -p cbr -e 200 -c 0 -i 45 -a 0 -x {0.0 1.0 45 ------- null}
- -t 0.225 -s 0 -d 1 -p cbr -e 200 -c 0 -i 45 -a 0 -x {0.0 1.0 45 ------- null}
h -t 0.225 -s 0 -d 1 -p cbr -e 200 -c 0 -i 45 -a 0 -x {0.0 1.0 -1 ------- null}
r -t 0.2266 -s 0 -d 1 -p cbr -e 200 -c 0 -i 43 -a 0 -x {0.0 1.0 43 ------- null}
+ -t 0.23 -s 0 -d 1 -p cbr -e 200 -c 0 -i 46 -a 0 -x {0.0 1.0 46 ------- null}
- -t 0.23 -s 0 -d 1 -p cbr -e 200 -c 0 -i 46 -a 0 -x {0.0 1.0 46 ------- null}
h -t 0.23 -s 0 -d 1 -p cbr -e 200 -c 0 -i 46 -a 0 -x {0.0 1.0 -1 ------- null}
r -t 0.2316 -s 0 -d 1 -p cbr -e 200 -c 0 -i 44 -a 0 -x {0.0 1.0 44 ------- null}
+ -t 0.235 -s 0 -d 1 -p cbr -e 200 -c 0 -i 47 -a 0 -x {0.0 1.0 47 ------- null}
- -t 0.235 -s 0 -d 1 -p cbr -e 200 -c 0 -i 47 -a 0 -x {0.0 1.0 47 ------- null}
h -t 0.235 -s 0 -d 1 -p cbr -e 200 -c 0 -i 47 -a 0 -x {0.0 1.0 -1 ------- null}
r -t 0.2366 -s 0 -d 1 -p cbr -e 200 -c 0 -i 45 -a 0 -x {0.0 1.0 45 ------- null}
+ -t 0.24 -s 0 -d 1 -p cbr -e 200 -c 0 -i 48 -a 0 -x {0.0 1.0 48 ------- null}
- -t 0.24 -s 0 -d 1 -p cbr -e 200 -c 0 -i 48 -a 0 -x {0.0 1.0 48 ------- null}
h -t 0.24 -s 0 -d 1 -p cbr -e 200 -c 0 -i 48 -a 0 -x {0.0 1.0 -1 ------- null}
r -t 0.2416 -s 0 -d 1 -p cbr -e 200 -c 0 -i 46 -a 0 -x {0.0 1.0 46 ------- null}
+ -t 0.245 -s 0 -d 1 -p cbr -e 200 -c 0 -i 49 -a 0 -x {0.0 1.0 49 ------- null}
- -t 0.245 -s 0 -d 1 -p cbr -e 200 -c 0 -i 49 -a 0 -x {0.0 1.0 49 ------- null}
h -t 0.245 -s 0 -d 1 -p cbr -e 200 -c 0 -i 49 -a 0 -x {0.0 1.0 -1 ------- null}
r -t 0.2466 -s 0 -d 1 -p cbr -e 200 -c 0 -i 47 -a 0 -x {0.0 1.0 47 ------- null}
+ -t 0.25 -s 0 -d 1 -p cbr -e 200 -c 0 -i 50 -a 0 -x {0.0 1.0 50 ------- null}
- -t 0.25 -s 0 -d 1 -p cbr -e 200 -c 0 -i 50 -a 0 -x {0.0 1.0 50 ------- null}
h -t 0.25 -s 0 -d 1 -p cbr -e 200 -c 0 -i 50 -a 0 -x {0.0 1.0 -1 ------- null}
r -t 0.2516 -s 0 -d 1 -p cbr -e 200 -c 0 -i 48 -a 0 -x {0.0 1.0 48 ------- null}
+ -t 0.255 -s 0 -d 1 -p cbr -e 200 -c 0 -i 51 -a 0 -x {0.0 1.0 51 ------- null}
- -t 0.255 -s 0 -d 1 -p cbr -e 200 -c 0 -i 51 -a 0 -x {0.0 1.0 51 ------- null}
h -t 0.255 -s 0 -d 1 -p cbr -e 200 -c 0 -i 51 -a 0 -x {0.0 1.0 -1 ------- null}
r -t 0.2566 -s 0 -d 1 -p cbr -e 200 -c 0 -i 49 -a 0 -x {0.0 1.0 49 ------- null}
+ -t 0.26 -s 0 -d 1 -p cbr -e 200 -c 0 -i 52 -a 0 -x {0.0 1.0 52 ------- null}
- -t 0.26 -s 0 -d 1 -p cbr -e 200 -c 0 -i 52 -a 0 -x {0.0 1.0 52 ------- null}
h -t 0.26 -s 0 -d 1 -p cbr -e 200 -c 0 -i 52 -a 0 -x {0.0 1.0 -1 ------- null}
r -t 0.2616 -s 0 -d 1 -p cbr -e 200 -c 0 -i 50 -a 0 -x {0.0 1.0 50 ------- null}
+ -t 0.265 -s 0 -d 1 -p cbr -e 200 -c 0 -i 53 -a 0 -x {0.0 1.0 53 ------- null}
- -t 0.265 -s 0 -d 1 -p cbr -e 200 -c 0 -i 53 -a 0 -x {0.0 1.0 53 ------- null}
h -t 0.265 -s 0 -d 1 -p cbr -e 200 -c 0 -i 53 -a 0 -x {0.0 1.0 -1 ------- null}
r -t 0.2666 -s 0 -d 1 -p cbr -e 200 -c 0 -i 51 -a 0 -x {0.0 1.0 51 ------- null}
+ -t 0.27 -s 0 -d 1 -p cbr -e 200 -c 0 -i 54 -a 0 -x {0.0 1.0 54 ------- null}
- -t 0.27 -s 0 -d 1 -p cbr -e 200 -c 0 -i 54 -a 0 -x {0.0 1.0 54 ------- null}
h -t 0.27 -s 0 -d 1 -p cbr -e 200 -c 0 -i 54 -a 0 -x {0.0 1.0 -1 ------- null}
r -t 0.2716 -s 0 -d 1 -p cbr -e 200 -c 0 -i 52 -a 0 -x {0.0 1.0 52 ------- null}
+ -t 0.275 -s 0 -d 1 -p cbr -e 200 -c 0 -i 55 -a 0 -x {0.0 1.0 55 ------- null}
- -t 0.275 -s 0 -d 1 -p cbr -e 200 -c 0 -i 55 -a 0 -x {0.0 1.0 55 ------- null}
h -t 0.275 -s 0 -d 1 -p cbr -e 200 -c 0 -i 55 -a 0 -x {0.0 1.0 -1 ------- null}
r -t 0.2766 -s 0 -d 1 -p cbr -e 200 -c 0 -i 53 -a 0 -x {0.0 1.0 53 ------- null}
+ -t 0.28 -s 0 -d 1 -p cbr -e 200 -c 0 -i 56 -a 0 -x {0.0 1.0 56 ------- null}
- -t 0.28 -s 0 -d 1 -p cbr -e 200 -c 0 -i 56 -a 0 -x {0.0 1.0 56 ------- null}
h -t 0.28 -s 0 -d 1 -p cbr -e 200 -c 0 -i 56 -a 0 -x {0.0 1.0 -1 ------- null}
r -t 0.2816 -s 0 -d 1 -p cbr -e 200 -c 0 -i 54 -a 0 -x {0.0 1.0 54 ------- null}
+ -t 0.285 -s 0 -d 1 -p cbr -e 200 -c 0 -i 57 -a 0 -x {0.0 1.0 57 ------- null}
- -t 0.285 -s 0 -d 1 -p cbr -e 200 -c 0 -i 57 -a 0 -x {0.0 1.0 57 ------- null}
h -t 0.285 -s 0 -d 1 -p cbr -e 200 -c 0 -i 57 -a 0 -x {0.0 1.0 -1 ------- null}
r -t 0.2866 -s 0 -d 1 -p cbr -e 200 -c 0 -i 55 -a 0 -x {0.0 1.0 55 ------- null}
+ -t 0.29 -s 0 -d 1 -p cbr -e 200 -c 0 -i 58 -a 0 -x {0.0 1.0 58 ------- null}
- -t 0.29 -s 0 -d 1 -p cbr -e 200 -c 0 -i 58 -a 0 -x {0.0 1.0 58 ------- null}
h -t 0.29 -s 0 -d 1 -p cbr -e 200 -c 0 -i 58 -a 0 -x {0.0 1.0 -1 ------- null}
r -t 0.2916 -s 0 -d 1 -p cbr -e 200 -c 0 -i 56 -a 0 -x {0.0 1.0 56 ------- null}
+ -t 0.295 -s 0 -d 1 -p cbr -e 200 -c 0 -i 59 -a 0 -x {0.0 1.0 59 ------- null}
- -t 0.295 -s 0 -d 1 -p cbr -e 200 -c 0 -i 59 -a 0 -x {0.0 1.0 59 ------- null}
h -t 0.295 -s 0 -d 1 -p cbr -e 200 -c 0 -i 59 -a 0 -x {0.0 1.0 -1 ------- null}
r -t 0.2966 -s 0 -d 1 -p cbr -e 200 -c 0 -i 57 -a 0 -x {0.0 1.0 57 ------- null}
+ -t 0.3 -s 0 -d 1 -p cbr -e 200 -c 0 -i 60 -a 0 -x {0.0 1.0 60 ------- null}
- -t 0.3 -s 0 -d 1 -p cbr -e 200 -c 0 -i 60 -a 0 -x {0.0 1.0 60 ------- null}
h -t 0.3 -s 0 -d 1 -p cbr -e 200 -c 0 -i 60 -a 0 -x {0.0 1.0 -1 ------- null}
r -t 0.3016 -s 0 -d 1 -p cbr -e 200 -c 0 -i 58 -a 0 -x {0.0 1.0 58 ------- null}
+ -t 0.305 -s 0 -d 1 -p cbr -e 200 -c 0 -i 61 -a 0 -x {0.0 1.0 61 ------- null}
- -t 0.305 -s 0 -d 1 -p cbr -e 200 -c 0 -i 61 -a 0 -x {0.0 1.0 61 ------- null}
h -t 0.305 -s 0 -d 1 -p cbr -e 200 -c 0 -i 61 -a 0 -x {0.0 1.0 -1 ------- null}
r -t 0.3066 -s 0 -d 1 -p cbr -e 200 -c 0 -i 59 -a 0 -x {0.0 1.0 59 ------- null}
+ -t 0.31 -s 0 -d 1 -p cbr -e 200 -c 0 -i 62 -a 0 -x {0.0 1.0 62 ------- null}
- -t 0.31 -s 0 -d 1 -p cbr -e 200 -c 0 -i 62 -a 0 -x {0.0 1.0 62 ------- null}
h -t 0.31 -s 0 -d 1 -p cbr -e 200 -c 0 -i 62 -a 0 -x {0.0 1.0 -1 ------- null}
r -t 0.3116 -s 0 -d 1 -p cbr -e 200 -c 0 -i 60 -a 0 -x {0.0 1.0 60 ------- null}
+ -t 0.315 -s 0 -d 1 -p cbr -e 200 -c 0 -i 63 -a 0 -x {0.0 1.0 63 ------- null}
- -t 0.315 -s 0 -d 1 -p cbr -e 200 -c 0 -i 63 -a 0 -x {0.0 1.0 63 ------- null}
h -t 0.315 -s 0 -d 1 -p cbr -e 200 -c 0 -i 63 -a 0 -x {0.0 1.0 -1 ------- null}
r -t 0.3166 -s 0 -d 1 -p cbr -e 200 -c 0 -i 61 -a 0 -x {0.0 1.0 61 ------- null}
+ -t 0.32 -s 0 -d 1 -p cbr -e 200 -c 0 -i 64 -a 0 -x {0.0 1.0 64 ------- null}
- -t 0.32 -s 0 -d 1 -p cbr -e 200 -c 0 -i 64 -a 0 -x {0.0 1.0 64 ------- null}
h -t 0.32 -s 0 -d 1 -p cbr -e 200 -c 0 -i 64 -a 0 -x {0.0 1.0 -1 ------- null}
r -t 0.3216 -s 0 -d 1 -p cbr -e 200 -c 0 -i 62 -a 0 -x {0.0 1.0 62 ------- null}
+ -t 0.325 -s 0 -d 1 -p cbr -e 200 -c 0 -i 65 -a 0 -x {0.0 1.0 65 ------- null}
- -t 0.325 -s 0 -d 1 -p cbr -e 200 -c 0 -i 65 -a 0 -x {0.0 1.0 65 ------- null}
h -t 0.325 -s 0 -d 1 -p cbr -e 200 -c 0 -i 65 -a 0 -x {0.0 1.0 -1 ------- null}
r -t 0.3266 -s 0 -d 1 -p cbr -e 200 -c 0 -i 63 -a 0 -x {0.0 1.0 63 ------- null}
+ -t 0.33 -s 0 -d 1 -p cbr -e 200 -c 0 -i 66 -a 0 -x {0.0 1.0 66 ------- null}
- -t 0.33 -s 0 -d 1 -p cbr -e 200 -c 0 -i 66 -a 0 -x {0.0 1.0 66 ------- null}
h -t 0.33 -s 0 -d 1 -p cbr -e 200 -c 0 -i 66 -a 0 -x {0.0 1.0 -1 ------- null}
r -t 0.3316 -s 0 -d 1 -p cbr -e 200 -c 0 -i 64 -a 0 -x {0.0 1.0 64 ------- null}
+ -t 0.335 -s 0 -d 1 -p cbr -e 200 -c 0 -i 67 -a 0 -x {0.0 1.0 67 ------- null}
- -t 0.335 -s 0 -d 1 -p cbr -e 200 -c 0 -i 67 -a 0 -x {0.0 1.0 67 ------- null}
h -t 0.335 -s 0 -d 1 -p cbr -e 200 -c 0 -i 67 -a 0 -x {0.0 1.0 -1 ------- null}
r -t 0.3366 -s 0 -d 1 -p cbr -e 200 -c 0 -i 65 -a 0 -x {0.0 1.0 65 ------- null}
+ -t 0.34 -s 0 -d 1 -p cbr -e 200 -c 0 -i 68 -a 0 -x {0.0 1.0 68 ------- null}
- -t 0.34 -s 0 -d 1 -p cbr -e 200 -c 0 -i 68 -a 0 -x {0.0 1.0 68 ------- null}
h -t 0.34 -s 0 -d 1 -p cbr -e 200 -c 0 -i 68 -a 0 -x {0.0 1.0 -1 ------- null}
r -t 0.3416 -s 0 -d 1 -p cbr -e 200 -c 0 -i 66 -a 0 -x {0.0 1.0 66 ------- null}
+ -t 0.345 -s 0 -d 1 -p cbr -e 200 -c 0 -i 69 -a 0 -x {0.0 1.0 69 ------- null}
- -t 0.345 -s 0 -d 1 -p cbr -e 200 -c 0 -i 69 -a 0 -x {0.0 1.0 69 ------- null}
h -t 0.345 -s 0 -d 1 -p cbr -e 200 -c 0 -i 69 -a 0 -x {0.0 1.0 -1 ------- null}
r -t 0.3466 -s 0 -d 1 -p cbr -e 200 -c 0 -i 67 -a 0 -x {0.0 1.0 67 ------- null}
+ -t 0.35 -s 0 -d 1 -p cbr -e 200 -c 0 -i 70 -a 0 -x {0.0 1.0 70 ------- null}
- -t 0.35 -s 0 -d 1 -p cbr -e 200 -c 0 -i 70 -a 0 -x {0.0 1.0 70 ------- null}
h -t 0.35 -s 0 -d 1 -p cbr -e 200 -c 0 -i 70 -a 0 -x {0.0 1.0 -1 ------- null}
r -t 0.3516 -s 0 -d 1 -p cbr -e 200 -c 0 -i 68 -a 0 -x {0.0 1.0 68 ------- null}
+ -t 0.355 -s 0 -d 1 -p cbr -e 200 -c 0 -i 71 -a 0 -x {0.0 1.0 71 ------- null}
- -t 0.355 -s 0 -d 1 -p cbr -e 200 -c 0 -i 71 -a 0 -x {0.0 1.0 71 ------- null}
h -t 0.355 -s 0 -d 1 -p cbr -e 200 -c 0 -i 71 -a 0 -x {0.0 1.0 -1 ------- null}
r -t 0.3566 -s 0 -d 1 -p cbr -e 200 -c 0 -i 69 -a 0 -x {0.0 1.0 69 ------- null}
+ -t 0.36 -s 0 -d 1 -p cbr -e 200 -c 0 -i 72 -a 0 -x {0.0 1.0 72 ------- null}
- -t 0.36 -s 0 -d 1 -p cbr -e 200 -c 0 -i 72 -a 0 -x {0.0 1.0 72 ------- null}
h -t 0.36 -s 0 -d 1 -p cbr -e 200 -c 0 -i 72 -a 0 -x {0.0 1.0 -1 ------- null}
r -t 0.3616 -s 0 -d 1 -p cbr -e 200 -c 0 -i 70 -a 0 -x {0.0 1.0 70 ------- null}
+ -t 0.365 -s 0 -d 1 -p cbr -e 200 -c 0 -i 73 -a 0 -x {0.0 1.0 73 ------- null}
- -t 0.365 -s 0 -d 1 -p cbr -e 200 -c 0 -i 73 -a 0 -x {0.0 1.0 73 ------- null}
h -t 0.365 -s 0 -d 1 -p cbr -e 200 -c 0 -i 73 -a 0 -x {0.0 1.0 -1 ------- null}
r -t 0.3666 -s 0 -d 1 -p cbr -e 200 -c 0 -i 71 -a 0 -x {0.0 1.0 71 ------- null}
+ -t 0.37 -s 0 -d 1 -p cbr -e 200 -c 0 -i 74 -a 0 -x {0.0 1.0 74 ------- null}
- -t 0.37 -s 0 -d 1 -p cbr -e 200 -c 0 -i 74 -a 0 -x {0.0 1.0 74 ------- null}
h -t 0.37 -s 0 -d 1 -p cbr -e 200 -c 0 -i 74 -a 0 -x {0.0 1.0 -1 ------- null}
r -t 0.3716 -s 0 -d 1 -p cbr -e 200 -c 0 -i 72 -a 0 -x {0.0 1.0 72 ------- null}
+ -t 0.375 -s 0 -d 1 -p cbr -e 200 -c 0 -i 75 -a 0 -x {0.0 1.0 75 ------- null}
- -t 0.375 -s 0 -d 1 -p cbr -e 200 -c 0 -i 75 -a 0 -x {0.0 1.0 75 ------- null}
h -t 0.375 -s 0 -d 1 -p cbr -e 200 -c 0 -i 75 -a 0 -x {0.0 1.0 -1 ------- null}
r -t 0.3766 -s 0 -d 1 -p cbr -e 200 -c 0 -i 73 -a 0 -x {0.0 1.0 73 ------- null}
+ -t 0.38 -s 0 -d 1 -p cbr -e 200 -c 0 -i 76 -a 0 -x {0.0 1.0 76 ------- null}
- -t 0.38 -s 0 -d 1 -p cbr -e 200 -c 0 -i 76 -a 0 -x {0.0 1.0 76 ------- null}
h -t 0.38 -s 0 -d 1 -p cbr -e 200 -c 0 -i 76 -a 0 -x {0.0 1.0 -1 ------- null}
r -t 0.3816 -s 0 -d 1 -p cbr -e 200 -c 0 -i 74 -a 0 -x {0.0 1.0 74 ------- null}
+ -t 0.385 -s 0 -d 1 -p cbr -e 200 -c 0 -i 77 -a 0 -x {0.0 1.0 77 ------- null}
- -t 0.385 -s 0 -d 1 -p cbr -e 200 -c 0 -i 77 -a 0 -x {0.0 1.0 77 ------- null}
h -t 0.385 -s 0 -d 1 -p cbr -e 200 -c 0 -i 77 -a 0 -x {0.0 1.0 -1 ------- null}
r -t 0.3866 -s 0 -d 1 -p cbr -e 200 -c 0 -i 75 -a 0 -x {0.0 1.0 75 ------- null}
+ -t 0.39 -s 0 -d 1 -p cbr -e 200 -c 0 -i 78 -a 0 -x {0.0 1.0 78 ------- null}
- -t 0.39 -s 0 -d 1 -p cbr -e 200 -c 0 -i 78 -a 0 -x {0.0 1.0 78 ------- null}
h -t 0.39 -s 0 -d 1 -p cbr -e 200 -c 0 -i 78 -a 0 -x {0.0 1.0 -1 ------- null}
r -t 0.3916 -s 0 -d 1 -p cbr -e 200 -c 0 -i 76 -a 0 -x {0.0 1.0 76 ------- null}
+ -t 0.395 -s 0 -d 1 -p cbr -e 200 -c 0 -i 79 -a 0 -x {0.0 1.0 79 ------- null}
- -t 0.395 -s 0 -d 1 -p cbr -e 200 -c 0 -i 79 -a 0 -x {0.0 1.0 79 ------- null}
h -t 0.395 -s 0 -d 1 -p cbr -e 200 -c 0 -i 79 -a 0 -x {0.0 1.0 -1 ------- null}
r -t 0.3966 -s 0 -d 1 -p cbr -e 200 -c 0 -i 77 -a 0 -x {0.0 1.0 77 ------- null}
+ -t 0.4 -s 0 -d 1 -p cbr -e 200 -c 0 -i 80 -a 0 -x {0.0 1.0 80 ------- null}
- -t 0.4 -s 0 -d 1 -p cbr -e 200 -c 0 -i 80 -a 0 -x {0.0 1.0 80 ------- null}
h -t 0.4 -s 0 -d 1 -p cbr -e 200 -c 0 -i 80 -a 0 -x {0.0 1.0 -1 ------- null}
r -t 0.4016 -s 0 -d 1 -p cbr -e 200 -c 0 -i 78 -a 0 -x {0.0 1.0 78 ------- null}
+ -t 0.405 -s 0 -d 1 -p cbr -e 200 -c 0 -i 81 -a 0 -x {0.0 1.0 81 ------- null}
- -t 0.405 -s 0 -d 1 -p cbr -e 200 -c 0 -i 81 -a 0 -x {0.0 1.0 81 ------- null}
h -t 0.405 -s 0 -d 1 -p cbr -e 200 -c 0 -i 81 -a 0 -x {0.0 1.0 -1 ------- null}
r -t 0.4066 -s 0 -d 1 -p cbr -e 200 -c 0 -i 79 -a 0 -x {0.0 1.0 79 ------- null}
+ -t 0.41 -s 0 -d 1 -p cbr -e 200 -c 0 -i 82 -a 0 -x {0.0 1.0 82 ------- null}
- -t 0.41 -s 0 -d 1 -p cbr -e 200 -c 0 -i 82 -a 0 -x {0.0 1.0 82 ------- null}
h -t 0.41 -s 0 -d 1 -p cbr -e 200 -c 0 -i 82 -a 0 -x {0.0 1.0 -1 ------- null}
r -t 0.4116 -s 0 -d 1 -p cbr -e 200 -c 0 -i 80 -a 0 -x {0.0 1.0 80 ------- null}
+ -t 0.415 -s 0 -d 1 -p cbr -e 200 -c 0 -i 83 -a 0 -x {0.0 1.0 83 ------- null}
- -t 0.415 -s 0 -d 1 -p cbr -e 200 -c 0 -i 83 -a 0 -x {0.0 1.0 83 ------- null}
h -t 0.415 -s 0 -d 1 -p cbr -e 200 -c 0 -i 83 -a 0 -x {0.0 1.0 -1 ------- null}
r -t 0.4166 -s 0 -d 1 -p cbr -e 200 -c 0 -i 81 -a 0 -x {0.0 1.0 81 ------- null}
+ -t 0.42 -s 0 -d 1 -p cbr -e 200 -c 0 -i 84 -a 0 -x {0.0 1.0 84 ------- null}
- -t 0.42 -s 0 -d 1 -p cbr -e 200 -c 0 -i 84 -a 0 -x {0.0 1.0 84 ------- null}
h -t 0.42 -s 0 -d 1 -p cbr -e 200 -c 0 -i 84 -a 0 -x {0.0 1.0 -1 ------- null}
r -t 0.4216 -s 0 -d 1 -p cbr -e 200 -c 0 -i 82 -a 0 -x {0.0 1.0 82 ------- null}
+ -t 0.425 -s 0 -d 1 -p cbr -e 200 -c 0 -i 85 -a 0 -x {0.0 1.0 85 ------- null}
- -t 0.425 -s 0 -d 1 -p cbr -e 200 -c 0 -i 85 -a 0 -x {0.0 1.0 85 ------- null}
h -t 0.425 -s 0 -d 1 -p cbr -e 200 -c 0 -i 85 -a 0 -x {0.0 1.0 -1 ------- null}
r -t 0.4266 -s 0 -d 1 -p cbr -e 200 -c 0 -i 83 -a 0 -x {0.0 1.0 83 ------- null}
+ -t 0.43 -s 0 -d 1 -p cbr -e 200 -c 0 -i 86 -a 0 -x {0.0 1.0 86 ------- null}
- -t 0.43 -s 0 -d 1 -p cbr -e 200 -c 0 -i 86 -a 0 -x {0.0 1.0 86 ------- null}
h -t 0.43 -s 0 -d 1 -p cbr -e 200 -c 0 -i 86 -a 0 -x {0.0 1.0 -1 ------- null}
r -t 0.4316 -s 0 -d 1 -p cbr -e 200 -c 0 -i 84 -a 0 -x {0.0 1.0 84 ------- null}
+ -t 0.435 -s 0 -d 1 -p cbr -e 200 -c 0 -i 87 -a 0 -x {0.0 1.0 87 ------- null}
- -t 0.435 -s 0 -d 1 -p cbr -e 200 -c 0 -i 87 -a 0 -x {0.0 1.0 87 ------- null}
h -t 0.435 -s 0 -d 1 -p cbr -e 200 -c 0 -i 87 -a 0 -x {0.0 1.0 -1 ------- null}
r -t 0.4366 -s 0 -d 1 -p cbr -e 200 -c 0 -i 85 -a 0 -x {0.0 1.0 85 ------- null}
+ -t 0.44 -s 0 -d 1 -p cbr -e 200 -c 0 -i 88 -a 0 -x {0.0 1.0 88 ------- null}
- -t 0.44 -s 0 -d 1 -p cbr -e 200 -c 0 -i 88 -a 0 -x {0.0 1.0 88 ------- null}
h -t 0.44 -s 0 -d 1 -p cbr -e 200 -c 0 -i 88 -a 0 -x {0.0 1.0 -1 ------- null}
r -t 0.4416 -s 0 -d 1 -p cbr -e 200 -c 0 -i 86 -a 0 -x {0.0 1.0 86 ------- null}
+ -t 0.445 -s 0 -d 1 -p cbr -e 200 -c 0 -i 89 -a 0 -x {0.0 1.0 89 ------- null}
- -t 0.445 -s 0 -d 1 -p cbr -e 200 -c 0 -i 89 -a 0 -x {0.0 1.0 89 ------- null}
h -t 0.445 -s 0 -d 1 -p cbr -e 200 -c 0 -i 89 -a 0 -x {0.0 1.0 -1 ------- null}
r -t 0.4466 -s 0 -d 1 -p cbr -e 200 -c 0 -i 87 -a 0 -x {0.0 1.0 87 ------- null}
+ -t 0.45 -s 0 -d 1 -p cbr -e 200 -c 0 -i 90 -a 0 -x {0.0 1.0 90 ------- null}
- -t 0.45 -s 0 -d 1 -p cbr -e 200 -c 0 -i 90 -a 0 -x {0.0 1.0 90 ------- null}
h -t 0.45 -s 0 -d 1 -p cbr -e 200 -c 0 -i 90 -a 0 -x {0.0 1.0 -1 ------- null}
r -t 0.4516 -s 0 -d 1 -p cbr -e 200 -c 0 -i 88 -a 0 -x {0.0 1.0 88 ------- null}
+ -t 0.455 -s 0 -d 1 -p cbr -e 200 -c 0 -i 91 -a 0 -x {0.0 1.0 91 ------- null}
- -t 0.455 -s 0 -d 1 -p cbr -e 200 -c 0 -i 91 -a 0 -x {0.0 1.0 91 ------- null}
h -t 0.455 -s 0 -d 1 -p cbr -e 200 -c 0 -i 91 -a 0 -x {0.0 1.0 -1 ------- null}
r -t 0.4566 -s 0 -d 1 -p cbr -e 200 -c 0 -i 89 -a 0 -x {0.0 1.0 89 ------- null}
+ -t 0.46 -s 0 -d 1 -p cbr -e 200 -c 0 -i 92 -a 0 -x {0.0 1.0 92 ------- null}
- -t 0.46 -s 0 -d 1 -p cbr -e 200 -c 0 -i 92 -a 0 -x {0.0 1.0 92 ------- null}
h -t 0.46 -s 0 -d 1 -p cbr -e 200 -c 0 -i 92 -a 0 -x {0.0 1.0 -1 ------- null}
r -t 0.4616 -s 0 -d 1 -p cbr -e 200 -c 0 -i 90 -a 0 -x {0.0 1.0 90 ------- null}
+ -t 0.465 -s 0 -d 1 -p cbr -e 200 -c 0 -i 93 -a 0 -x {0.0 1.0 93 ------- null}
- -t 0.465 -s 0 -d 1 -p cbr -e 200 -c 0 -i 93 -a 0 -x {0.0 1.0 93 ------- null}
h -t 0.465 -s 0 -d 1 -p cbr -e 200 -c 0 -i 93 -a 0 -x {0.0 1.0 -1 ------- null}